Title: *** SPICE deck for cell 16_bit_lay{lay} from library 16_bit_comparator
Date: Tue Aug 20 21:44:19 2024
Plotname: Operating Point
Flags: real
No. Variables: 3399
No. Points:            1
Offset:   0.0000000000000000e+000
Command: Linear Technology Corporation LTspice IV
Variables:
	0	V(net@11145)	voltage
	1	V(net@11842)	voltage
	2	V(net@11140)	voltage
	3	V(net@11181)	voltage
	4	V(net@11162)	voltage
	5	V(net@11217)	voltage
	6	V(net@11153)	voltage
	7	V(net@11264)	voltage
	8	V(net@11187)	voltage
	9	V(net@11294)	voltage
	10	V(net@11158)	voltage
	11	V(net@11226)	voltage
	12	V(net@11182)	voltage
	13	V(net@11802)	voltage
	14	V(net@11221)	voltage
	15	V(net@11136)	voltage
	16	V(net@11331)	voltage
	17	V(net@11340)	voltage
	18	V(b15)	voltage
	19	V(net@11385)	voltage
	20	V(a15)	voltage
	21	V(net@11515)	voltage
	22	V(net@11341)	voltage
	23	V(net@11326)	voltage
	24	V(net@11540)	voltage
	25	V(net@11549)	voltage
	26	V(b14)	voltage
	27	V(net@11591)	voltage
	28	V(a14)	voltage
	29	V(net@11705)	voltage
	30	V(net@11550)	voltage
	31	V(net@11535)	voltage
	32	V(net@11557)	voltage
	33	V(net@11877)	voltage
	34	V(net@12568)	voltage
	35	V(net@11872)	voltage
	36	V(net@11913)	voltage
	37	V(net@11894)	voltage
	38	V(net@11949)	voltage
	39	V(net@11885)	voltage
	40	V(net@11996)	voltage
	41	V(net@11919)	voltage
	42	V(net@12026)	voltage
	43	V(net@11890)	voltage
	44	V(net@11958)	voltage
	45	V(net@11914)	voltage
	46	V(net@12528)	voltage
	47	V(net@11953)	voltage
	48	V(net@11868)	voltage
	49	V(net@12063)	voltage
	50	V(net@12072)	voltage
	51	V(b13)	voltage
	52	V(net@12117)	voltage
	53	V(a13)	voltage
	54	V(net@12244)	voltage
	55	V(net@12073)	voltage
	56	V(net@12058)	voltage
	57	V(net@12269)	voltage
	58	V(net@12278)	voltage
	59	V(b12)	voltage
	60	V(net@12320)	voltage
	61	V(a12)	voltage
	62	V(net@12431)	voltage
	63	V(net@12279)	voltage
	64	V(net@12264)	voltage
	65	V(net@12286)	voltage
	66	V(net@12844)	voltage
	67	V(net@12641)	voltage
	68	V(net@12621)	voltage
	69	V(net@12680)	voltage
	70	V(net@12727)	voltage
	71	V(net@12648)	voltage
	72	V(net@12757)	voltage
	73	V(net@10837)	voltage
	74	V(net@12804)	voltage
	75	V(net@10860)	voltage
	76	V(net@10818)	voltage
	77	V(net@12920)	voltage
	78	V(net@13617)	voltage
	79	V(net@12915)	voltage
	80	V(net@12956)	voltage
	81	V(net@12937)	voltage
	82	V(net@12992)	voltage
	83	V(net@12928)	voltage
	84	V(net@13039)	voltage
	85	V(net@12962)	voltage
	86	V(net@13069)	voltage
	87	V(net@12933)	voltage
	88	V(net@10678)	voltage
	89	V(net@12957)	voltage
	90	V(net@13577)	voltage
	91	V(net@10708)	voltage
	92	V(net@10605)	voltage
	93	V(net@13106)	voltage
	94	V(net@13115)	voltage
	95	V(b11)	voltage
	96	V(net@13160)	voltage
	97	V(a11)	voltage
	98	V(net@13290)	voltage
	99	V(net@13116)	voltage
	100	V(net@13101)	voltage
	101	V(net@13315)	voltage
	102	V(net@13324)	voltage
	103	V(b10)	voltage
	104	V(net@13366)	voltage
	105	V(a10)	voltage
	106	V(net@13480)	voltage
	107	V(net@13325)	voltage
	108	V(net@13310)	voltage
	109	V(net@13332)	voltage
	110	V(net@13652)	voltage
	111	V(net@14343)	voltage
	112	V(net@13647)	voltage
	113	V(net@13688)	voltage
	114	V(net@13669)	voltage
	115	V(net@13724)	voltage
	116	V(net@13660)	voltage
	117	V(net@13771)	voltage
	118	V(net@13694)	voltage
	119	V(net@13801)	voltage
	120	V(net@13665)	voltage
	121	V(net@10749)	voltage
	122	V(net@13689)	voltage
	123	V(net@14303)	voltage
	124	V(net@10623)	voltage
	125	V(net@13643)	voltage
	126	V(net@13838)	voltage
	127	V(net@13847)	voltage
	128	V(b9)	voltage
	129	V(net@13892)	voltage
	130	V(a9)	voltage
	131	V(net@14019)	voltage
	132	V(net@13848)	voltage
	133	V(net@13833)	voltage
	134	V(net@14044)	voltage
	135	V(net@14053)	voltage
	136	V(b8)	voltage
	137	V(net@14095)	voltage
	138	V(a8)	voltage
	139	V(net@14206)	voltage
	140	V(net@14054)	voltage
	141	V(net@14039)	voltage
	142	V(net@14061)	voltage
	143	V(net@10747)	voltage
	144	V(net@10599)	voltage
	145	V(net@10598)	voltage
	146	V(net@14455)	voltage
	147	V(net@10630)	voltage
	148	V(net@10634)	voltage
	149	V(net@10660)	voltage
	150	V(net@10593)	voltage
	151	V(net@10707)	voltage
	152	V(net@10691)	voltage
	153	V(net@10690)	voltage
	154	V(net@11064)	voltage
	155	V(net@10861)	voltage
	156	V(net@10841)	voltage
	157	V(net@10900)	voltage
	158	V(net@10947)	voltage
	159	V(net@10868)	voltage
	160	V(net@10977)	voltage
	161	V(net@10909)	voltage
	162	V(net@11024)	voltage
	163	V(net@10904)	voltage
	164	V(net@10814)	voltage
	165	V(net@15017)	voltage
	166	V(net@15714)	voltage
	167	V(net@15012)	voltage
	168	V(net@15053)	voltage
	169	V(net@15034)	voltage
	170	V(net@15089)	voltage
	171	V(net@15025)	voltage
	172	V(net@15136)	voltage
	173	V(net@15059)	voltage
	174	V(net@15166)	voltage
	175	V(net@15030)	voltage
	176	V(net@15098)	voltage
	177	V(net@15054)	voltage
	178	V(net@15674)	voltage
	179	V(net@15093)	voltage
	180	V(net@15008)	voltage
	181	V(net@15203)	voltage
	182	V(net@15212)	voltage
	183	V(b7)	voltage
	184	V(net@15257)	voltage
	185	V(a7)	voltage
	186	V(net@15387)	voltage
	187	V(net@15213)	voltage
	188	V(net@15198)	voltage
	189	V(net@15412)	voltage
	190	V(net@15421)	voltage
	191	V(b6)	voltage
	192	V(net@15463)	voltage
	193	V(a6)	voltage
	194	V(net@15577)	voltage
	195	V(net@15422)	voltage
	196	V(net@15407)	voltage
	197	V(net@15429)	voltage
	198	V(net@15749)	voltage
	199	V(net@16440)	voltage
	200	V(net@15744)	voltage
	201	V(net@15785)	voltage
	202	V(net@15766)	voltage
	203	V(net@15821)	voltage
	204	V(net@15757)	voltage
	205	V(net@15868)	voltage
	206	V(net@15791)	voltage
	207	V(net@15898)	voltage
	208	V(net@15762)	voltage
	209	V(net@15830)	voltage
	210	V(net@15786)	voltage
	211	V(net@16400)	voltage
	212	V(net@15825)	voltage
	213	V(net@15740)	voltage
	214	V(net@15935)	voltage
	215	V(net@15944)	voltage
	216	V(b5)	voltage
	217	V(net@15989)	voltage
	218	V(a5)	voltage
	219	V(net@16116)	voltage
	220	V(net@15945)	voltage
	221	V(net@15930)	voltage
	222	V(net@16141)	voltage
	223	V(net@16150)	voltage
	224	V(b4)	voltage
	225	V(net@16192)	voltage
	226	V(a4)	voltage
	227	V(net@16303)	voltage
	228	V(net@16151)	voltage
	229	V(net@16136)	voltage
	230	V(net@16158)	voltage
	231	V(net@16716)	voltage
	232	V(net@16513)	voltage
	233	V(net@16493)	voltage
	234	V(net@16552)	voltage
	235	V(net@16599)	voltage
	236	V(net@16520)	voltage
	237	V(net@16629)	voltage
	238	V(net@14709)	voltage
	239	V(net@16676)	voltage
	240	V(net@14732)	voltage
	241	V(net@14690)	voltage
	242	V(net@16792)	voltage
	243	V(net@17489)	voltage
	244	V(net@16787)	voltage
	245	V(net@16828)	voltage
	246	V(net@16809)	voltage
	247	V(net@16864)	voltage
	248	V(net@16800)	voltage
	249	V(net@16911)	voltage
	250	V(net@16834)	voltage
	251	V(net@16941)	voltage
	252	V(net@16805)	voltage
	253	V(net@14550)	voltage
	254	V(net@16829)	voltage
	255	V(net@17449)	voltage
	256	V(net@14580)	voltage
	257	V(net@14477)	voltage
	258	V(net@16978)	voltage
	259	V(net@16987)	voltage
	260	V(b3)	voltage
	261	V(net@17032)	voltage
	262	V(a3)	voltage
	263	V(net@17162)	voltage
	264	V(net@16988)	voltage
	265	V(net@16973)	voltage
	266	V(net@17187)	voltage
	267	V(net@17196)	voltage
	268	V(b2)	voltage
	269	V(net@17238)	voltage
	270	V(a2)	voltage
	271	V(net@17352)	voltage
	272	V(net@17197)	voltage
	273	V(net@17182)	voltage
	274	V(net@17204)	voltage
	275	V(net@17524)	voltage
	276	V(net@18215)	voltage
	277	V(net@17519)	voltage
	278	V(net@17560)	voltage
	279	V(net@17541)	voltage
	280	V(net@17596)	voltage
	281	V(net@17532)	voltage
	282	V(net@17643)	voltage
	283	V(net@17566)	voltage
	284	V(net@17673)	voltage
	285	V(net@17537)	voltage
	286	V(net@14621)	voltage
	287	V(net@17561)	voltage
	288	V(net@18175)	voltage
	289	V(net@14495)	voltage
	290	V(net@17515)	voltage
	291	V(net@17710)	voltage
	292	V(net@17719)	voltage
	293	V(b1)	voltage
	294	V(net@17764)	voltage
	295	V(a1)	voltage
	296	V(net@17891)	voltage
	297	V(net@17720)	voltage
	298	V(net@17705)	voltage
	299	V(net@17916)	voltage
	300	V(net@17925)	voltage
	301	V(b0)	voltage
	302	V(net@17967)	voltage
	303	V(a0)	voltage
	304	V(net@18078)	voltage
	305	V(net@17926)	voltage
	306	V(net@17911)	voltage
	307	V(net@17933)	voltage
	308	V(net@14619)	voltage
	309	V(net@14471)	voltage
	310	V(net@14470)	voltage
	311	V(net@18327)	voltage
	312	V(net@14502)	voltage
	313	V(net@14506)	voltage
	314	V(net@14532)	voltage
	315	V(net@14465)	voltage
	316	V(net@14579)	voltage
	317	V(net@14563)	voltage
	318	V(net@14562)	voltage
	319	V(net@14936)	voltage
	320	V(net@14733)	voltage
	321	V(net@14713)	voltage
	322	V(net@14772)	voltage
	323	V(net@14819)	voltage
	324	V(net@14740)	voltage
	325	V(net@14849)	voltage
	326	V(net@14781)	voltage
	327	V(net@14896)	voltage
	328	V(net@14776)	voltage
	329	V(net@14686)	voltage
	330	V(net@18587)	voltage
	331	V(net@18384)	voltage
	332	V(net@18364)	voltage
	333	V(net@18423)	voltage
	334	V(net@18470)	voltage
	335	V(net@18391)	voltage
	336	V(net@18500)	voltage
	337	V(l)	voltage
	338	V(net@18547)	voltage
	339	V(g)	voltage
	340	V(e)	voltage
	341	V(vdd)	voltage
	342	V(net@11300)	voltage
	343	V(net@11808)	voltage
	344	V(net@11137)	voltage
	345	V(net@11366)	voltage
	346	V(net@11572)	voltage
	347	V(net@12032)	voltage
	348	V(net@12534)	voltage
	349	V(net@11869)	voltage
	350	V(net@12098)	voltage
	351	V(net@12301)	voltage
	352	V(net@12763)	voltage
	353	V(net@12810)	voltage
	354	V(net@12595)	voltage
	355	V(net@13075)	voltage
	356	V(net@13583)	voltage
	357	V(net@12912)	voltage
	358	V(net@13141)	voltage
	359	V(net@13347)	voltage
	360	V(net@13807)	voltage
	361	V(net@14309)	voltage
	362	V(net@13644)	voltage
	363	V(net@13873)	voltage
	364	V(net@14076)	voltage
	365	V(net@10666)	voltage
	366	V(net@10713)	voltage
	367	V(net@14370)	voltage
	368	V(net@10983)	voltage
	369	V(net@11030)	voltage
	370	V(net@10815)	voltage
	371	V(net@15172)	voltage
	372	V(net@15680)	voltage
	373	V(net@15009)	voltage
	374	V(net@15238)	voltage
	375	V(net@15444)	voltage
	376	V(net@15904)	voltage
	377	V(net@16406)	voltage
	378	V(net@15741)	voltage
	379	V(net@15970)	voltage
	380	V(net@16173)	voltage
	381	V(net@16635)	voltage
	382	V(net@16682)	voltage
	383	V(net@16467)	voltage
	384	V(net@16947)	voltage
	385	V(net@17455)	voltage
	386	V(net@16784)	voltage
	387	V(net@17013)	voltage
	388	V(net@17219)	voltage
	389	V(net@17679)	voltage
	390	V(net@18181)	voltage
	391	V(net@17516)	voltage
	392	V(net@17745)	voltage
	393	V(net@17948)	voltage
	394	V(net@14538)	voltage
	395	V(net@14585)	voltage
	396	V(net@18242)	voltage
	397	V(net@14855)	voltage
	398	V(net@14902)	voltage
	399	V(net@14687)	voltage
	400	V(net@18506)	voltage
	401	V(net@18553)	voltage
	402	V(net@18338)	voltage
	403	Id(Mpmos@754)	device_current
	404	Ig(Mpmos@754)	device_current
	405	Ib(Mpmos@754)	device_current
	406	Is(Mpmos@754)	device_current
	407	Id(Mpmos@753)	device_current
	408	Ig(Mpmos@753)	device_current
	409	Ib(Mpmos@753)	device_current
	410	Is(Mpmos@753)	device_current
	411	Id(Mpmos@752)	device_current
	412	Ig(Mpmos@752)	device_current
	413	Ib(Mpmos@752)	device_current
	414	Is(Mpmos@752)	device_current
	415	Id(Mpmos@751)	device_current
	416	Ig(Mpmos@751)	device_current
	417	Ib(Mpmos@751)	device_current
	418	Is(Mpmos@751)	device_current
	419	Id(Mpmos@750)	device_current
	420	Ig(Mpmos@750)	device_current
	421	Ib(Mpmos@750)	device_current
	422	Is(Mpmos@750)	device_current
	423	Id(Mpmos@749)	device_current
	424	Ig(Mpmos@749)	device_current
	425	Ib(Mpmos@749)	device_current
	426	Is(Mpmos@749)	device_current
	427	Id(Mpmos@748)	device_current
	428	Ig(Mpmos@748)	device_current
	429	Ib(Mpmos@748)	device_current
	430	Is(Mpmos@748)	device_current
	431	Id(Mpmos@747)	device_current
	432	Ig(Mpmos@747)	device_current
	433	Ib(Mpmos@747)	device_current
	434	Is(Mpmos@747)	device_current
	435	Id(Mpmos@746)	device_current
	436	Ig(Mpmos@746)	device_current
	437	Ib(Mpmos@746)	device_current
	438	Is(Mpmos@746)	device_current
	439	Id(Mpmos@745)	device_current
	440	Ig(Mpmos@745)	device_current
	441	Ib(Mpmos@745)	device_current
	442	Is(Mpmos@745)	device_current
	443	Id(Mpmos@744)	device_current
	444	Ig(Mpmos@744)	device_current
	445	Ib(Mpmos@744)	device_current
	446	Is(Mpmos@744)	device_current
	447	Id(Mpmos@743)	device_current
	448	Ig(Mpmos@743)	device_current
	449	Ib(Mpmos@743)	device_current
	450	Is(Mpmos@743)	device_current
	451	Id(Mpmos@742)	device_current
	452	Ig(Mpmos@742)	device_current
	453	Ib(Mpmos@742)	device_current
	454	Is(Mpmos@742)	device_current
	455	Id(Mpmos@741)	device_current
	456	Ig(Mpmos@741)	device_current
	457	Ib(Mpmos@741)	device_current
	458	Is(Mpmos@741)	device_current
	459	Id(Mpmos@740)	device_current
	460	Ig(Mpmos@740)	device_current
	461	Ib(Mpmos@740)	device_current
	462	Is(Mpmos@740)	device_current
	463	Id(Mpmos@739)	device_current
	464	Ig(Mpmos@739)	device_current
	465	Ib(Mpmos@739)	device_current
	466	Is(Mpmos@739)	device_current
	467	Id(Mpmos@738)	device_current
	468	Ig(Mpmos@738)	device_current
	469	Ib(Mpmos@738)	device_current
	470	Is(Mpmos@738)	device_current
	471	Id(Mpmos@737)	device_current
	472	Ig(Mpmos@737)	device_current
	473	Ib(Mpmos@737)	device_current
	474	Is(Mpmos@737)	device_current
	475	Id(Mpmos@736)	device_current
	476	Ig(Mpmos@736)	device_current
	477	Ib(Mpmos@736)	device_current
	478	Is(Mpmos@736)	device_current
	479	Id(Mpmos@735)	device_current
	480	Ig(Mpmos@735)	device_current
	481	Ib(Mpmos@735)	device_current
	482	Is(Mpmos@735)	device_current
	483	Id(Mpmos@734)	device_current
	484	Ig(Mpmos@734)	device_current
	485	Ib(Mpmos@734)	device_current
	486	Is(Mpmos@734)	device_current
	487	Id(Mpmos@733)	device_current
	488	Ig(Mpmos@733)	device_current
	489	Ib(Mpmos@733)	device_current
	490	Is(Mpmos@733)	device_current
	491	Id(Mpmos@732)	device_current
	492	Ig(Mpmos@732)	device_current
	493	Ib(Mpmos@732)	device_current
	494	Is(Mpmos@732)	device_current
	495	Id(Mpmos@731)	device_current
	496	Ig(Mpmos@731)	device_current
	497	Ib(Mpmos@731)	device_current
	498	Is(Mpmos@731)	device_current
	499	Id(Mpmos@730)	device_current
	500	Ig(Mpmos@730)	device_current
	501	Ib(Mpmos@730)	device_current
	502	Is(Mpmos@730)	device_current
	503	Id(Mpmos@729)	device_current
	504	Ig(Mpmos@729)	device_current
	505	Ib(Mpmos@729)	device_current
	506	Is(Mpmos@729)	device_current
	507	Id(Mpmos@728)	device_current
	508	Ig(Mpmos@728)	device_current
	509	Ib(Mpmos@728)	device_current
	510	Is(Mpmos@728)	device_current
	511	Id(Mpmos@727)	device_current
	512	Ig(Mpmos@727)	device_current
	513	Ib(Mpmos@727)	device_current
	514	Is(Mpmos@727)	device_current
	515	Id(Mpmos@726)	device_current
	516	Ig(Mpmos@726)	device_current
	517	Ib(Mpmos@726)	device_current
	518	Is(Mpmos@726)	device_current
	519	Id(Mpmos@725)	device_current
	520	Ig(Mpmos@725)	device_current
	521	Ib(Mpmos@725)	device_current
	522	Is(Mpmos@725)	device_current
	523	Id(Mpmos@724)	device_current
	524	Ig(Mpmos@724)	device_current
	525	Ib(Mpmos@724)	device_current
	526	Is(Mpmos@724)	device_current
	527	Id(Mpmos@723)	device_current
	528	Ig(Mpmos@723)	device_current
	529	Ib(Mpmos@723)	device_current
	530	Is(Mpmos@723)	device_current
	531	Id(Mpmos@722)	device_current
	532	Ig(Mpmos@722)	device_current
	533	Ib(Mpmos@722)	device_current
	534	Is(Mpmos@722)	device_current
	535	Id(Mpmos@721)	device_current
	536	Ig(Mpmos@721)	device_current
	537	Ib(Mpmos@721)	device_current
	538	Is(Mpmos@721)	device_current
	539	Id(Mpmos@720)	device_current
	540	Ig(Mpmos@720)	device_current
	541	Ib(Mpmos@720)	device_current
	542	Is(Mpmos@720)	device_current
	543	Id(Mpmos@719)	device_current
	544	Ig(Mpmos@719)	device_current
	545	Ib(Mpmos@719)	device_current
	546	Is(Mpmos@719)	device_current
	547	Id(Mpmos@718)	device_current
	548	Ig(Mpmos@718)	device_current
	549	Ib(Mpmos@718)	device_current
	550	Is(Mpmos@718)	device_current
	551	Id(Mpmos@717)	device_current
	552	Ig(Mpmos@717)	device_current
	553	Ib(Mpmos@717)	device_current
	554	Is(Mpmos@717)	device_current
	555	Id(Mpmos@716)	device_current
	556	Ig(Mpmos@716)	device_current
	557	Ib(Mpmos@716)	device_current
	558	Is(Mpmos@716)	device_current
	559	Id(Mpmos@715)	device_current
	560	Ig(Mpmos@715)	device_current
	561	Ib(Mpmos@715)	device_current
	562	Is(Mpmos@715)	device_current
	563	Id(Mpmos@714)	device_current
	564	Ig(Mpmos@714)	device_current
	565	Ib(Mpmos@714)	device_current
	566	Is(Mpmos@714)	device_current
	567	Id(Mpmos@713)	device_current
	568	Ig(Mpmos@713)	device_current
	569	Ib(Mpmos@713)	device_current
	570	Is(Mpmos@713)	device_current
	571	Id(Mpmos@712)	device_current
	572	Ig(Mpmos@712)	device_current
	573	Ib(Mpmos@712)	device_current
	574	Is(Mpmos@712)	device_current
	575	Id(Mpmos@711)	device_current
	576	Ig(Mpmos@711)	device_current
	577	Ib(Mpmos@711)	device_current
	578	Is(Mpmos@711)	device_current
	579	Id(Mpmos@710)	device_current
	580	Ig(Mpmos@710)	device_current
	581	Ib(Mpmos@710)	device_current
	582	Is(Mpmos@710)	device_current
	583	Id(Mpmos@709)	device_current
	584	Ig(Mpmos@709)	device_current
	585	Ib(Mpmos@709)	device_current
	586	Is(Mpmos@709)	device_current
	587	Id(Mpmos@708)	device_current
	588	Ig(Mpmos@708)	device_current
	589	Ib(Mpmos@708)	device_current
	590	Is(Mpmos@708)	device_current
	591	Id(Mpmos@707)	device_current
	592	Ig(Mpmos@707)	device_current
	593	Ib(Mpmos@707)	device_current
	594	Is(Mpmos@707)	device_current
	595	Id(Mpmos@706)	device_current
	596	Ig(Mpmos@706)	device_current
	597	Ib(Mpmos@706)	device_current
	598	Is(Mpmos@706)	device_current
	599	Id(Mpmos@705)	device_current
	600	Ig(Mpmos@705)	device_current
	601	Ib(Mpmos@705)	device_current
	602	Is(Mpmos@705)	device_current
	603	Id(Mpmos@704)	device_current
	604	Ig(Mpmos@704)	device_current
	605	Ib(Mpmos@704)	device_current
	606	Is(Mpmos@704)	device_current
	607	Id(Mpmos@703)	device_current
	608	Ig(Mpmos@703)	device_current
	609	Ib(Mpmos@703)	device_current
	610	Is(Mpmos@703)	device_current
	611	Id(Mpmos@702)	device_current
	612	Ig(Mpmos@702)	device_current
	613	Ib(Mpmos@702)	device_current
	614	Is(Mpmos@702)	device_current
	615	Id(Mpmos@701)	device_current
	616	Ig(Mpmos@701)	device_current
	617	Ib(Mpmos@701)	device_current
	618	Is(Mpmos@701)	device_current
	619	Id(Mpmos@700)	device_current
	620	Ig(Mpmos@700)	device_current
	621	Ib(Mpmos@700)	device_current
	622	Is(Mpmos@700)	device_current
	623	Id(Mpmos@699)	device_current
	624	Ig(Mpmos@699)	device_current
	625	Ib(Mpmos@699)	device_current
	626	Is(Mpmos@699)	device_current
	627	Id(Mpmos@698)	device_current
	628	Ig(Mpmos@698)	device_current
	629	Ib(Mpmos@698)	device_current
	630	Is(Mpmos@698)	device_current
	631	Id(Mpmos@697)	device_current
	632	Ig(Mpmos@697)	device_current
	633	Ib(Mpmos@697)	device_current
	634	Is(Mpmos@697)	device_current
	635	Id(Mpmos@696)	device_current
	636	Ig(Mpmos@696)	device_current
	637	Ib(Mpmos@696)	device_current
	638	Is(Mpmos@696)	device_current
	639	Id(Mpmos@695)	device_current
	640	Ig(Mpmos@695)	device_current
	641	Ib(Mpmos@695)	device_current
	642	Is(Mpmos@695)	device_current
	643	Id(Mpmos@694)	device_current
	644	Ig(Mpmos@694)	device_current
	645	Ib(Mpmos@694)	device_current
	646	Is(Mpmos@694)	device_current
	647	Id(Mpmos@693)	device_current
	648	Ig(Mpmos@693)	device_current
	649	Ib(Mpmos@693)	device_current
	650	Is(Mpmos@693)	device_current
	651	Id(Mpmos@692)	device_current
	652	Ig(Mpmos@692)	device_current
	653	Ib(Mpmos@692)	device_current
	654	Is(Mpmos@692)	device_current
	655	Id(Mpmos@691)	device_current
	656	Ig(Mpmos@691)	device_current
	657	Ib(Mpmos@691)	device_current
	658	Is(Mpmos@691)	device_current
	659	Id(Mpmos@690)	device_current
	660	Ig(Mpmos@690)	device_current
	661	Ib(Mpmos@690)	device_current
	662	Is(Mpmos@690)	device_current
	663	Id(Mpmos@689)	device_current
	664	Ig(Mpmos@689)	device_current
	665	Ib(Mpmos@689)	device_current
	666	Is(Mpmos@689)	device_current
	667	Id(Mpmos@688)	device_current
	668	Ig(Mpmos@688)	device_current
	669	Ib(Mpmos@688)	device_current
	670	Is(Mpmos@688)	device_current
	671	Id(Mpmos@687)	device_current
	672	Ig(Mpmos@687)	device_current
	673	Ib(Mpmos@687)	device_current
	674	Is(Mpmos@687)	device_current
	675	Id(Mpmos@686)	device_current
	676	Ig(Mpmos@686)	device_current
	677	Ib(Mpmos@686)	device_current
	678	Is(Mpmos@686)	device_current
	679	Id(Mpmos@685)	device_current
	680	Ig(Mpmos@685)	device_current
	681	Ib(Mpmos@685)	device_current
	682	Is(Mpmos@685)	device_current
	683	Id(Mpmos@684)	device_current
	684	Ig(Mpmos@684)	device_current
	685	Ib(Mpmos@684)	device_current
	686	Is(Mpmos@684)	device_current
	687	Id(Mpmos@683)	device_current
	688	Ig(Mpmos@683)	device_current
	689	Ib(Mpmos@683)	device_current
	690	Is(Mpmos@683)	device_current
	691	Id(Mpmos@682)	device_current
	692	Ig(Mpmos@682)	device_current
	693	Ib(Mpmos@682)	device_current
	694	Is(Mpmos@682)	device_current
	695	Id(Mpmos@681)	device_current
	696	Ig(Mpmos@681)	device_current
	697	Ib(Mpmos@681)	device_current
	698	Is(Mpmos@681)	device_current
	699	Id(Mpmos@680)	device_current
	700	Ig(Mpmos@680)	device_current
	701	Ib(Mpmos@680)	device_current
	702	Is(Mpmos@680)	device_current
	703	Id(Mpmos@679)	device_current
	704	Ig(Mpmos@679)	device_current
	705	Ib(Mpmos@679)	device_current
	706	Is(Mpmos@679)	device_current
	707	Id(Mpmos@678)	device_current
	708	Ig(Mpmos@678)	device_current
	709	Ib(Mpmos@678)	device_current
	710	Is(Mpmos@678)	device_current
	711	Id(Mpmos@677)	device_current
	712	Ig(Mpmos@677)	device_current
	713	Ib(Mpmos@677)	device_current
	714	Is(Mpmos@677)	device_current
	715	Id(Mpmos@676)	device_current
	716	Ig(Mpmos@676)	device_current
	717	Ib(Mpmos@676)	device_current
	718	Is(Mpmos@676)	device_current
	719	Id(Mpmos@675)	device_current
	720	Ig(Mpmos@675)	device_current
	721	Ib(Mpmos@675)	device_current
	722	Is(Mpmos@675)	device_current
	723	Id(Mpmos@674)	device_current
	724	Ig(Mpmos@674)	device_current
	725	Ib(Mpmos@674)	device_current
	726	Is(Mpmos@674)	device_current
	727	Id(Mpmos@673)	device_current
	728	Ig(Mpmos@673)	device_current
	729	Ib(Mpmos@673)	device_current
	730	Is(Mpmos@673)	device_current
	731	Id(Mpmos@672)	device_current
	732	Ig(Mpmos@672)	device_current
	733	Ib(Mpmos@672)	device_current
	734	Is(Mpmos@672)	device_current
	735	Id(Mpmos@671)	device_current
	736	Ig(Mpmos@671)	device_current
	737	Ib(Mpmos@671)	device_current
	738	Is(Mpmos@671)	device_current
	739	Id(Mpmos@670)	device_current
	740	Ig(Mpmos@670)	device_current
	741	Ib(Mpmos@670)	device_current
	742	Is(Mpmos@670)	device_current
	743	Id(Mpmos@669)	device_current
	744	Ig(Mpmos@669)	device_current
	745	Ib(Mpmos@669)	device_current
	746	Is(Mpmos@669)	device_current
	747	Id(Mpmos@668)	device_current
	748	Ig(Mpmos@668)	device_current
	749	Ib(Mpmos@668)	device_current
	750	Is(Mpmos@668)	device_current
	751	Id(Mpmos@667)	device_current
	752	Ig(Mpmos@667)	device_current
	753	Ib(Mpmos@667)	device_current
	754	Is(Mpmos@667)	device_current
	755	Id(Mpmos@666)	device_current
	756	Ig(Mpmos@666)	device_current
	757	Ib(Mpmos@666)	device_current
	758	Is(Mpmos@666)	device_current
	759	Id(Mpmos@665)	device_current
	760	Ig(Mpmos@665)	device_current
	761	Ib(Mpmos@665)	device_current
	762	Is(Mpmos@665)	device_current
	763	Id(Mpmos@664)	device_current
	764	Ig(Mpmos@664)	device_current
	765	Ib(Mpmos@664)	device_current
	766	Is(Mpmos@664)	device_current
	767	Id(Mpmos@663)	device_current
	768	Ig(Mpmos@663)	device_current
	769	Ib(Mpmos@663)	device_current
	770	Is(Mpmos@663)	device_current
	771	Id(Mpmos@662)	device_current
	772	Ig(Mpmos@662)	device_current
	773	Ib(Mpmos@662)	device_current
	774	Is(Mpmos@662)	device_current
	775	Id(Mpmos@661)	device_current
	776	Ig(Mpmos@661)	device_current
	777	Ib(Mpmos@661)	device_current
	778	Is(Mpmos@661)	device_current
	779	Id(Mpmos@660)	device_current
	780	Ig(Mpmos@660)	device_current
	781	Ib(Mpmos@660)	device_current
	782	Is(Mpmos@660)	device_current
	783	Id(Mpmos@659)	device_current
	784	Ig(Mpmos@659)	device_current
	785	Ib(Mpmos@659)	device_current
	786	Is(Mpmos@659)	device_current
	787	Id(Mpmos@658)	device_current
	788	Ig(Mpmos@658)	device_current
	789	Ib(Mpmos@658)	device_current
	790	Is(Mpmos@658)	device_current
	791	Id(Mpmos@657)	device_current
	792	Ig(Mpmos@657)	device_current
	793	Ib(Mpmos@657)	device_current
	794	Is(Mpmos@657)	device_current
	795	Id(Mpmos@656)	device_current
	796	Ig(Mpmos@656)	device_current
	797	Ib(Mpmos@656)	device_current
	798	Is(Mpmos@656)	device_current
	799	Id(Mpmos@655)	device_current
	800	Ig(Mpmos@655)	device_current
	801	Ib(Mpmos@655)	device_current
	802	Is(Mpmos@655)	device_current
	803	Id(Mpmos@654)	device_current
	804	Ig(Mpmos@654)	device_current
	805	Ib(Mpmos@654)	device_current
	806	Is(Mpmos@654)	device_current
	807	Id(Mpmos@653)	device_current
	808	Ig(Mpmos@653)	device_current
	809	Ib(Mpmos@653)	device_current
	810	Is(Mpmos@653)	device_current
	811	Id(Mpmos@652)	device_current
	812	Ig(Mpmos@652)	device_current
	813	Ib(Mpmos@652)	device_current
	814	Is(Mpmos@652)	device_current
	815	Id(Mpmos@651)	device_current
	816	Ig(Mpmos@651)	device_current
	817	Ib(Mpmos@651)	device_current
	818	Is(Mpmos@651)	device_current
	819	Id(Mpmos@650)	device_current
	820	Ig(Mpmos@650)	device_current
	821	Ib(Mpmos@650)	device_current
	822	Is(Mpmos@650)	device_current
	823	Id(Mpmos@649)	device_current
	824	Ig(Mpmos@649)	device_current
	825	Ib(Mpmos@649)	device_current
	826	Is(Mpmos@649)	device_current
	827	Id(Mpmos@648)	device_current
	828	Ig(Mpmos@648)	device_current
	829	Ib(Mpmos@648)	device_current
	830	Is(Mpmos@648)	device_current
	831	Id(Mpmos@647)	device_current
	832	Ig(Mpmos@647)	device_current
	833	Ib(Mpmos@647)	device_current
	834	Is(Mpmos@647)	device_current
	835	Id(Mpmos@646)	device_current
	836	Ig(Mpmos@646)	device_current
	837	Ib(Mpmos@646)	device_current
	838	Is(Mpmos@646)	device_current
	839	Id(Mpmos@645)	device_current
	840	Ig(Mpmos@645)	device_current
	841	Ib(Mpmos@645)	device_current
	842	Is(Mpmos@645)	device_current
	843	Id(Mpmos@644)	device_current
	844	Ig(Mpmos@644)	device_current
	845	Ib(Mpmos@644)	device_current
	846	Is(Mpmos@644)	device_current
	847	Id(Mpmos@643)	device_current
	848	Ig(Mpmos@643)	device_current
	849	Ib(Mpmos@643)	device_current
	850	Is(Mpmos@643)	device_current
	851	Id(Mpmos@642)	device_current
	852	Ig(Mpmos@642)	device_current
	853	Ib(Mpmos@642)	device_current
	854	Is(Mpmos@642)	device_current
	855	Id(Mpmos@641)	device_current
	856	Ig(Mpmos@641)	device_current
	857	Ib(Mpmos@641)	device_current
	858	Is(Mpmos@641)	device_current
	859	Id(Mpmos@640)	device_current
	860	Ig(Mpmos@640)	device_current
	861	Ib(Mpmos@640)	device_current
	862	Is(Mpmos@640)	device_current
	863	Id(Mpmos@639)	device_current
	864	Ig(Mpmos@639)	device_current
	865	Ib(Mpmos@639)	device_current
	866	Is(Mpmos@639)	device_current
	867	Id(Mpmos@638)	device_current
	868	Ig(Mpmos@638)	device_current
	869	Ib(Mpmos@638)	device_current
	870	Is(Mpmos@638)	device_current
	871	Id(Mpmos@637)	device_current
	872	Ig(Mpmos@637)	device_current
	873	Ib(Mpmos@637)	device_current
	874	Is(Mpmos@637)	device_current
	875	Id(Mpmos@636)	device_current
	876	Ig(Mpmos@636)	device_current
	877	Ib(Mpmos@636)	device_current
	878	Is(Mpmos@636)	device_current
	879	Id(Mpmos@635)	device_current
	880	Ig(Mpmos@635)	device_current
	881	Ib(Mpmos@635)	device_current
	882	Is(Mpmos@635)	device_current
	883	Id(Mpmos@634)	device_current
	884	Ig(Mpmos@634)	device_current
	885	Ib(Mpmos@634)	device_current
	886	Is(Mpmos@634)	device_current
	887	Id(Mpmos@633)	device_current
	888	Ig(Mpmos@633)	device_current
	889	Ib(Mpmos@633)	device_current
	890	Is(Mpmos@633)	device_current
	891	Id(Mpmos@632)	device_current
	892	Ig(Mpmos@632)	device_current
	893	Ib(Mpmos@632)	device_current
	894	Is(Mpmos@632)	device_current
	895	Id(Mpmos@631)	device_current
	896	Ig(Mpmos@631)	device_current
	897	Ib(Mpmos@631)	device_current
	898	Is(Mpmos@631)	device_current
	899	Id(Mpmos@630)	device_current
	900	Ig(Mpmos@630)	device_current
	901	Ib(Mpmos@630)	device_current
	902	Is(Mpmos@630)	device_current
	903	Id(Mpmos@629)	device_current
	904	Ig(Mpmos@629)	device_current
	905	Ib(Mpmos@629)	device_current
	906	Is(Mpmos@629)	device_current
	907	Id(Mpmos@628)	device_current
	908	Ig(Mpmos@628)	device_current
	909	Ib(Mpmos@628)	device_current
	910	Is(Mpmos@628)	device_current
	911	Id(Mpmos@627)	device_current
	912	Ig(Mpmos@627)	device_current
	913	Ib(Mpmos@627)	device_current
	914	Is(Mpmos@627)	device_current
	915	Id(Mpmos@626)	device_current
	916	Ig(Mpmos@626)	device_current
	917	Ib(Mpmos@626)	device_current
	918	Is(Mpmos@626)	device_current
	919	Id(Mpmos@625)	device_current
	920	Ig(Mpmos@625)	device_current
	921	Ib(Mpmos@625)	device_current
	922	Is(Mpmos@625)	device_current
	923	Id(Mpmos@624)	device_current
	924	Ig(Mpmos@624)	device_current
	925	Ib(Mpmos@624)	device_current
	926	Is(Mpmos@624)	device_current
	927	Id(Mpmos@623)	device_current
	928	Ig(Mpmos@623)	device_current
	929	Ib(Mpmos@623)	device_current
	930	Is(Mpmos@623)	device_current
	931	Id(Mpmos@622)	device_current
	932	Ig(Mpmos@622)	device_current
	933	Ib(Mpmos@622)	device_current
	934	Is(Mpmos@622)	device_current
	935	Id(Mpmos@621)	device_current
	936	Ig(Mpmos@621)	device_current
	937	Ib(Mpmos@621)	device_current
	938	Is(Mpmos@621)	device_current
	939	Id(Mpmos@620)	device_current
	940	Ig(Mpmos@620)	device_current
	941	Ib(Mpmos@620)	device_current
	942	Is(Mpmos@620)	device_current
	943	Id(Mpmos@619)	device_current
	944	Ig(Mpmos@619)	device_current
	945	Ib(Mpmos@619)	device_current
	946	Is(Mpmos@619)	device_current
	947	Id(Mpmos@618)	device_current
	948	Ig(Mpmos@618)	device_current
	949	Ib(Mpmos@618)	device_current
	950	Is(Mpmos@618)	device_current
	951	Id(Mpmos@617)	device_current
	952	Ig(Mpmos@617)	device_current
	953	Ib(Mpmos@617)	device_current
	954	Is(Mpmos@617)	device_current
	955	Id(Mpmos@616)	device_current
	956	Ig(Mpmos@616)	device_current
	957	Ib(Mpmos@616)	device_current
	958	Is(Mpmos@616)	device_current
	959	Id(Mpmos@615)	device_current
	960	Ig(Mpmos@615)	device_current
	961	Ib(Mpmos@615)	device_current
	962	Is(Mpmos@615)	device_current
	963	Id(Mpmos@614)	device_current
	964	Ig(Mpmos@614)	device_current
	965	Ib(Mpmos@614)	device_current
	966	Is(Mpmos@614)	device_current
	967	Id(Mpmos@613)	device_current
	968	Ig(Mpmos@613)	device_current
	969	Ib(Mpmos@613)	device_current
	970	Is(Mpmos@613)	device_current
	971	Id(Mpmos@612)	device_current
	972	Ig(Mpmos@612)	device_current
	973	Ib(Mpmos@612)	device_current
	974	Is(Mpmos@612)	device_current
	975	Id(Mpmos@611)	device_current
	976	Ig(Mpmos@611)	device_current
	977	Ib(Mpmos@611)	device_current
	978	Is(Mpmos@611)	device_current