Title: *** SPICE deck for cell 8_bit_lay{lay} from library 8-bit-comparator
Date: Tue Aug 20 21:25:08 2024
Plotname: Operating Point
Flags: real
No. Variables: 1639
No. Points:            1
Offset:   0.0000000000000000e+000
Command: Linear Technology Corporation LTspice IV
Variables:
	0	V(net@14825)	voltage
	1	V(net@15522)	voltage
	2	V(net@14820)	voltage
	3	V(net@14861)	voltage
	4	V(net@14842)	voltage
	5	V(net@14897)	voltage
	6	V(net@14833)	voltage
	7	V(net@14944)	voltage
	8	V(net@14867)	voltage
	9	V(net@14974)	voltage
	10	V(net@14838)	voltage
	11	V(net@14906)	voltage
	12	V(net@14862)	voltage
	13	V(net@15482)	voltage
	14	V(net@14901)	voltage
	15	V(net@14816)	voltage
	16	V(net@15011)	voltage
	17	V(net@15020)	voltage
	18	V(b7)	voltage
	19	V(net@15065)	voltage
	20	V(a7)	voltage
	21	V(net@15195)	voltage
	22	V(net@15021)	voltage
	23	V(net@15006)	voltage
	24	V(net@15220)	voltage
	25	V(net@15229)	voltage
	26	V(b6)	voltage
	27	V(net@15271)	voltage
	28	V(a6)	voltage
	29	V(net@15385)	voltage
	30	V(net@15230)	voltage
	31	V(net@15215)	voltage
	32	V(net@15237)	voltage
	33	V(net@15557)	voltage
	34	V(net@16251)	voltage
	35	V(net@15552)	voltage
	36	V(net@15593)	voltage
	37	V(net@15574)	voltage
	38	V(net@15629)	voltage
	39	V(net@15565)	voltage
	40	V(net@15676)	voltage
	41	V(net@15599)	voltage
	42	V(net@15706)	voltage
	43	V(net@15570)	voltage
	44	V(net@15638)	voltage
	45	V(net@15594)	voltage
	46	V(net@16211)	voltage
	47	V(net@15633)	voltage
	48	V(net@15548)	voltage
	49	V(net@15743)	voltage
	50	V(net@15752)	voltage
	51	V(b5)	voltage
	52	V(net@15797)	voltage
	53	V(a5)	voltage
	54	V(net@15927)	voltage
	55	V(net@15753)	voltage
	56	V(net@15738)	voltage
	57	V(net@15952)	voltage
	58	V(net@15961)	voltage
	59	V(b4)	voltage
	60	V(net@16003)	voltage
	61	V(a4)	voltage
	62	V(net@16114)	voltage
	63	V(net@15962)	voltage
	64	V(net@15947)	voltage
	65	V(net@15969)	voltage
	66	V(net@16527)	voltage
	67	V(net@16324)	voltage
	68	V(net@16304)	voltage
	69	V(net@16363)	voltage
	70	V(net@16410)	voltage
	71	V(net@16331)	voltage
	72	V(net@16440)	voltage
	73	V(net@16372)	voltage
	74	V(net@16487)	voltage
	75	V(net@16367)	voltage
	76	V(net@16277)	voltage
	77	V(net@16603)	voltage
	78	V(net@17300)	voltage
	79	V(net@16598)	voltage
	80	V(net@16639)	voltage
	81	V(net@16620)	voltage
	82	V(net@16675)	voltage
	83	V(net@16611)	voltage
	84	V(net@16722)	voltage
	85	V(net@16645)	voltage
	86	V(net@16752)	voltage
	87	V(net@16616)	voltage
	88	V(net@16684)	voltage
	89	V(net@16640)	voltage
	90	V(net@17260)	voltage
	91	V(net@16679)	voltage
	92	V(net@16594)	voltage
	93	V(net@16789)	voltage
	94	V(net@16798)	voltage
	95	V(b3)	voltage
	96	V(net@16843)	voltage
	97	V(a3)	voltage
	98	V(net@16973)	voltage
	99	V(net@16799)	voltage
	100	V(net@16784)	voltage
	101	V(net@16998)	voltage
	102	V(net@17007)	voltage
	103	V(b2)	voltage
	104	V(net@17049)	voltage
	105	V(a2)	voltage
	106	V(net@17163)	voltage
	107	V(net@17008)	voltage
	108	V(net@16993)	voltage
	109	V(net@17015)	voltage
	110	V(net@17335)	voltage
	111	V(net@18029)	voltage
	112	V(net@17330)	voltage
	113	V(net@17371)	voltage
	114	V(net@17352)	voltage
	115	V(net@17407)	voltage
	116	V(net@17343)	voltage
	117	V(net@17454)	voltage
	118	V(net@17377)	voltage
	119	V(net@17484)	voltage
	120	V(net@17348)	voltage
	121	V(net@17416)	voltage
	122	V(net@17372)	voltage
	123	V(net@17989)	voltage
	124	V(net@17411)	voltage
	125	V(net@17326)	voltage
	126	V(net@17521)	voltage
	127	V(net@17530)	voltage
	128	V(b1)	voltage
	129	V(net@17575)	voltage
	130	V(a1)	voltage
	131	V(net@17705)	voltage
	132	V(net@17531)	voltage
	133	V(net@17516)	voltage
	134	V(net@17730)	voltage
	135	V(net@17739)	voltage
	136	V(b0)	voltage
	137	V(net@17781)	voltage
	138	V(a0)	voltage
	139	V(net@17892)	voltage
	140	V(net@17740)	voltage
	141	V(net@17725)	voltage
	142	V(net@17747)	voltage
	143	V(net@18305)	voltage
	144	V(net@18102)	voltage
	145	V(net@18082)	voltage
	146	V(net@18141)	voltage
	147	V(net@18188)	voltage
	148	V(net@18109)	voltage
	149	V(net@18218)	voltage
	150	V(net@18150)	voltage
	151	V(net@18265)	voltage
	152	V(net@18145)	voltage
	153	V(net@18055)	voltage
	154	V(net@18622)	voltage
	155	V(net@18419)	voltage
	156	V(net@18399)	voltage
	157	V(net@18458)	voltage
	158	V(net@18505)	voltage
	159	V(net@18426)	voltage
	160	V(net@18535)	voltage
	161	V(l)	voltage
	162	V(net@18582)	voltage
	163	V(g)	voltage
	164	V(e)	voltage
	165	V(vdd)	voltage
	166	V(net@14980)	voltage
	167	V(net@15488)	voltage
	168	V(net@14817)	voltage
	169	V(net@15046)	voltage
	170	V(net@15252)	voltage
	171	V(net@15712)	voltage
	172	V(net@16217)	voltage
	173	V(net@15549)	voltage
	174	V(net@15778)	voltage
	175	V(net@15984)	voltage
	176	V(net@16446)	voltage
	177	V(net@16493)	voltage
	178	V(net@16278)	voltage
	179	V(net@16758)	voltage
	180	V(net@17266)	voltage
	181	V(net@16595)	voltage
	182	V(net@16824)	voltage
	183	V(net@17030)	voltage
	184	V(net@17490)	voltage
	185	V(net@17995)	voltage
	186	V(net@17327)	voltage
	187	V(net@17556)	voltage
	188	V(net@17762)	voltage
	189	V(net@18224)	voltage
	190	V(net@18271)	voltage
	191	V(net@18056)	voltage
	192	V(net@18541)	voltage
	193	V(net@18588)	voltage
	194	V(net@18373)	voltage
	195	Id(Mpmos@717)	device_current
	196	Ig(Mpmos@717)	device_current
	197	Ib(Mpmos@717)	device_current
	198	Is(Mpmos@717)	device_current
	199	Id(Mpmos@716)	device_current
	200	Ig(Mpmos@716)	device_current
	201	Ib(Mpmos@716)	device_current
	202	Is(Mpmos@716)	device_current
	203	Id(Mpmos@715)	device_current
	204	Ig(Mpmos@715)	device_current
	205	Ib(Mpmos@715)	device_current
	206	Is(Mpmos@715)	device_current
	207	Id(Mpmos@714)	device_current
	208	Ig(Mpmos@714)	device_current
	209	Ib(Mpmos@714)	device_current
	210	Is(Mpmos@714)	device_current
	211	Id(Mpmos@713)	device_current
	212	Ig(Mpmos@713)	device_current
	213	Ib(Mpmos@713)	device_current
	214	Is(Mpmos@713)	device_current
	215	Id(Mpmos@712)	device_current
	216	Ig(Mpmos@712)	device_current
	217	Ib(Mpmos@712)	device_current
	218	Is(Mpmos@712)	device_current
	219	Id(Mpmos@711)	device_current
	220	Ig(Mpmos@711)	device_current
	221	Ib(Mpmos@711)	device_current
	222	Is(Mpmos@711)	device_current
	223	Id(Mpmos@710)	device_current
	224	Ig(Mpmos@710)	device_current
	225	Ib(Mpmos@710)	device_current
	226	Is(Mpmos@710)	device_current
	227	Id(Mpmos@709)	device_current
	228	Ig(Mpmos@709)	device_current
	229	Ib(Mpmos@709)	device_current
	230	Is(Mpmos@709)	device_current
	231	Id(Mpmos@708)	device_current
	232	Ig(Mpmos@708)	device_current
	233	Ib(Mpmos@708)	device_current
	234	Is(Mpmos@708)	device_current
	235	Id(Mpmos@707)	device_current
	236	Ig(Mpmos@707)	device_current
	237	Ib(Mpmos@707)	device_current
	238	Is(Mpmos@707)	device_current
	239	Id(Mpmos@706)	device_current
	240	Ig(Mpmos@706)	device_current
	241	Ib(Mpmos@706)	device_current
	242	Is(Mpmos@706)	device_current
	243	Id(Mpmos@705)	device_current
	244	Ig(Mpmos@705)	device_current
	245	Ib(Mpmos@705)	device_current
	246	Is(Mpmos@705)	device_current
	247	Id(Mpmos@704)	device_current
	248	Ig(Mpmos@704)	device_current
	249	Ib(Mpmos@704)	device_current
	250	Is(Mpmos@704)	device_current
	251	Id(Mpmos@703)	device_current
	252	Ig(Mpmos@703)	device_current
	253	Ib(Mpmos@703)	device_current
	254	Is(Mpmos@703)	device_current
	255	Id(Mpmos@702)	device_current
	256	Ig(Mpmos@702)	device_current
	257	Ib(Mpmos@702)	device_current
	258	Is(Mpmos@702)	device_current
	259	Id(Mpmos@701)	device_current
	260	Ig(Mpmos@701)	device_current
	261	Ib(Mpmos@701)	device_current
	262	Is(Mpmos@701)	device_current
	263	Id(Mpmos@700)	device_current
	264	Ig(Mpmos@700)	device_current
	265	Ib(Mpmos@700)	device_current
	266	Is(Mpmos@700)	device_current
	267	Id(Mpmos@699)	device_current
	268	Ig(Mpmos@699)	device_current
	269	Ib(Mpmos@699)	device_current
	270	Is(Mpmos@699)	device_current
	271	Id(Mpmos@698)	device_current
	272	Ig(Mpmos@698)	device_current
	273	Ib(Mpmos@698)	device_current
	274	Is(Mpmos@698)	device_current
	275	Id(Mpmos@697)	device_current
	276	Ig(Mpmos@697)	device_current
	277	Ib(Mpmos@697)	device_current
	278	Is(Mpmos@697)	device_current
	279	Id(Mpmos@696)	device_current
	280	Ig(Mpmos@696)	device_current
	281	Ib(Mpmos@696)	device_current
	282	Is(Mpmos@696)	device_current
	283	Id(Mpmos@695)	device_current
	284	Ig(Mpmos@695)	device_current
	285	Ib(Mpmos@695)	device_current
	286	Is(Mpmos@695)	device_current
	287	Id(Mpmos@694)	device_current
	288	Ig(Mpmos@694)	device_current
	289	Ib(Mpmos@694)	device_current
	290	Is(Mpmos@694)	device_current
	291	Id(Mpmos@693)	device_current
	292	Ig(Mpmos@693)	device_current
	293	Ib(Mpmos@693)	device_current
	294	Is(Mpmos@693)	device_current
	295	Id(Mpmos@692)	device_current
	296	Ig(Mpmos@692)	device_current
	297	Ib(Mpmos@692)	device_current
	298	Is(Mpmos@692)	device_current
	299	Id(Mpmos@691)	device_current
	300	Ig(Mpmos@691)	device_current
	301	Ib(Mpmos@691)	device_current
	302	Is(Mpmos@691)	device_current
	303	Id(Mpmos@690)	device_current
	304	Ig(Mpmos@690)	device_current
	305	Ib(Mpmos@690)	device_current
	306	Is(Mpmos@690)	device_current
	307	Id(Mpmos@689)	device_current
	308	Ig(Mpmos@689)	device_current
	309	Ib(Mpmos@689)	device_current
	310	Is(Mpmos@689)	device_current
	311	Id(Mpmos@688)	device_current
	312	Ig(Mpmos@688)	device_current
	313	Ib(Mpmos@688)	device_current
	314	Is(Mpmos@688)	device_current
	315	Id(Mpmos@687)	device_current
	316	Ig(Mpmos@687)	device_current
	317	Ib(Mpmos@687)	device_current
	318	Is(Mpmos@687)	device_current
	319	Id(Mpmos@686)	device_current
	320	Ig(Mpmos@686)	device_current
	321	Ib(Mpmos@686)	device_current
	322	Is(Mpmos@686)	device_current
	323	Id(Mpmos@685)	device_current
	324	Ig(Mpmos@685)	device_current
	325	Ib(Mpmos@685)	device_current
	326	Is(Mpmos@685)	device_current
	327	Id(Mpmos@684)	device_current
	328	Ig(Mpmos@684)	device_current
	329	Ib(Mpmos@684)	device_current
	330	Is(Mpmos@684)	device_current
	331	Id(Mpmos@683)	device_current
	332	Ig(Mpmos@683)	device_current
	333	Ib(Mpmos@683)	device_current
	334	Is(Mpmos@683)	device_current
	335	Id(Mpmos@682)	device_current
	336	Ig(Mpmos@682)	device_current
	337	Ib(Mpmos@682)	device_current
	338	Is(Mpmos@682)	device_current
	339	Id(Mpmos@681)	device_current
	340	Ig(Mpmos@681)	device_current
	341	Ib(Mpmos@681)	device_current
	342	Is(Mpmos@681)	device_current
	343	Id(Mpmos@680)	device_current
	344	Ig(Mpmos@680)	device_current
	345	Ib(Mpmos@680)	device_current
	346	Is(Mpmos@680)	device_current
	347	Id(Mpmos@679)	device_current
	348	Ig(Mpmos@679)	device_current
	349	Ib(Mpmos@679)	device_current
	350	Is(Mpmos@679)	device_current
	351	Id(Mpmos@678)	device_current
	352	Ig(Mpmos@678)	device_current
	353	Ib(Mpmos@678)	device_current
	354	Is(Mpmos@678)	device_current
	355	Id(Mpmos@677)	device_current
	356	Ig(Mpmos@677)	device_current
	357	Ib(Mpmos@677)	device_current
	358	Is(Mpmos@677)	device_current
	359	Id(Mpmos@676)	device_current
	360	Ig(Mpmos@676)	device_current
	361	Ib(Mpmos@676)	device_current
	362	Is(Mpmos@676)	device_current
	363	Id(Mpmos@675)	device_current
	364	Ig(Mpmos@675)	device_current
	365	Ib(Mpmos@675)	device_current
	366	Is(Mpmos@675)	device_current
	367	Id(Mpmos@674)	device_current
	368	Ig(Mpmos@674)	device_current
	369	Ib(Mpmos@674)	device_current
	370	Is(Mpmos@674)	device_current
	371	Id(Mpmos@673)	device_current
	372	Ig(Mpmos@673)	device_current
	373	Ib(Mpmos@673)	device_current
	374	Is(Mpmos@673)	device_current
	375	Id(Mpmos@672)	device_current
	376	Ig(Mpmos@672)	device_current
	377	Ib(Mpmos@672)	device_current
	378	Is(Mpmos@672)	device_current
	379	Id(Mpmos@671)	device_current
	380	Ig(Mpmos@671)	device_current
	381	Ib(Mpmos@671)	device_current
	382	Is(Mpmos@671)	device_current
	383	Id(Mpmos@670)	device_current
	384	Ig(Mpmos@670)	device_current
	385	Ib(Mpmos@670)	device_current
	386	Is(Mpmos@670)	device_current
	387	Id(Mpmos@669)	device_current
	388	Ig(Mpmos@669)	device_current
	389	Ib(Mpmos@669)	device_current
	390	Is(Mpmos@669)	device_current
	391	Id(Mpmos@668)	device_current
	392	Ig(Mpmos@668)	device_current
	393	Ib(Mpmos@668)	device_current
	394	Is(Mpmos@668)	device_current
	395	Id(Mpmos@667)	device_current
	396	Ig(Mpmos@667)	device_current
	397	Ib(Mpmos@667)	device_current
	398	Is(Mpmos@667)	device_current
	399	Id(Mpmos@666)	device_current
	400	Ig(Mpmos@666)	device_current
	401	Ib(Mpmos@666)	device_current
	402	Is(Mpmos@666)	device_current
	403	Id(Mpmos@665)	device_current
	404	Ig(Mpmos@665)	device_current
	405	Ib(Mpmos@665)	device_current
	406	Is(Mpmos@665)	device_current
	407	Id(Mpmos@664)	device_current
	408	Ig(Mpmos@664)	device_current
	409	Ib(Mpmos@664)	device_current
	410	Is(Mpmos@664)	device_current
	411	Id(Mpmos@663)	device_current
	412	Ig(Mpmos@663)	device_current
	413	Ib(Mpmos@663)	device_current
	414	Is(Mpmos@663)	device_current
	415	Id(Mpmos@662)	device_current
	416	Ig(Mpmos@662)	device_current
	417	Ib(Mpmos@662)	device_current
	418	Is(Mpmos@662)	device_current
	419	Id(Mpmos@661)	device_current
	420	Ig(Mpmos@661)	device_current
	421	Ib(Mpmos@661)	device_current
	422	Is(Mpmos@661)	device_current
	423	Id(Mpmos@660)	device_current
	424	Ig(Mpmos@660)	device_current
	425	Ib(Mpmos@660)	device_current
	426	Is(Mpmos@660)	device_current
	427	Id(Mpmos@659)	device_current
	428	Ig(Mpmos@659)	device_current
	429	Ib(Mpmos@659)	device_current
	430	Is(Mpmos@659)	device_current
	431	Id(Mpmos@658)	device_current
	432	Ig(Mpmos@658)	device_current
	433	Ib(Mpmos@658)	device_current
	434	Is(Mpmos@658)	device_current
	435	Id(Mpmos@657)	device_current
	436	Ig(Mpmos@657)	device_current
	437	Ib(Mpmos@657)	device_current
	438	Is(Mpmos@657)	device_current
	439	Id(Mpmos@656)	device_current
	440	Ig(Mpmos@656)	device_current
	441	Ib(Mpmos@656)	device_current
	442	Is(Mpmos@656)	device_current
	443	Id(Mpmos@655)	device_current
	444	Ig(Mpmos@655)	device_current
	445	Ib(Mpmos@655)	device_current
	446	Is(Mpmos@655)	device_current
	447	Id(Mpmos@654)	device_current
	448	Ig(Mpmos@654)	device_current
	449	Ib(Mpmos@654)	device_current
	450	Is(Mpmos@654)	device_current
	451	Id(Mpmos@653)	device_current
	452	Ig(Mpmos@653)	device_current
	453	Ib(Mpmos@653)	device_current
	454	Is(Mpmos@653)	device_current
	455	Id(Mpmos@652)	device_current
	456	Ig(Mpmos@652)	device_current
	457	Ib(Mpmos@652)	device_current
	458	Is(Mpmos@652)	device_current
	459	Id(Mpmos@651)	device_current
	460	Ig(Mpmos@651)	device_current
	461	Ib(Mpmos@651)	device_current
	462	Is(Mpmos@651)	device_current
	463	Id(Mpmos@650)	device_current
	464	Ig(Mpmos@650)	device_current
	465	Ib(Mpmos@650)	device_current
	466	Is(Mpmos@650)	device_current
	467	Id(Mpmos@649)	device_current
	468	Ig(Mpmos@649)	device_current
	469	Ib(Mpmos@649)	device_current
	470	Is(Mpmos@649)	device_current
	471	Id(Mpmos@648)	device_current
	472	Ig(Mpmos@648)	device_current
	473	Ib(Mpmos@648)	device_current
	474	Is(Mpmos@648)	device_current
	475	Id(Mpmos@647)	device_current
	476	Ig(Mpmos@647)	device_current
	477	Ib(Mpmos@647)	device_current
	478	Is(Mpmos@647)	device_current
	479	Id(Mpmos@646)	device_current
	480	Ig(Mpmos@646)	device_current
	481	Ib(Mpmos@646)	device_current
	482	Is(Mpmos@646)	device_current
	483	Id(Mpmos@645)	device_current
	484	Ig(Mpmos@645)	device_current
	485	Ib(Mpmos@645)	device_current
	486	Is(Mpmos@645)	device_current
	487	Id(Mpmos@644)	device_current
	488	Ig(Mpmos@644)	device_current
	489	Ib(Mpmos@644)	device_current
	490	Is(Mpmos@644)	device_current
	491	Id(Mpmos@643)	device_current
	492	Ig(Mpmos@643)	device_current
	493	Ib(Mpmos@643)	device_current
	494	Is(Mpmos@643)	device_current
	495	Id(Mpmos@642)	device_current
	496	Ig(Mpmos@642)	device_current
	497	Ib(Mpmos@642)	device_current
	498	Is(Mpmos@642)	device_current
	499	Id(Mpmos@641)	device_current
	500	Ig(Mpmos@641)	device_current
	501	Ib(Mpmos@641)	device_current
	502	Is(Mpmos@641)	device_current
	503	Id(Mpmos@640)	device_current
	504	Ig(Mpmos@640)	device_current
	505	Ib(Mpmos@640)	device_current
	506	Is(Mpmos@640)	device_current
	507	Id(Mpmos@639)	device_current
	508	Ig(Mpmos@639)	device_current
	509	Ib(Mpmos@639)	device_current
	510	Is(Mpmos@639)	device_current
	511	Id(Mpmos@638)	device_current
	512	Ig(Mpmos@638)	device_current
	513	Ib(Mpmos@638)	device_current
	514	Is(Mpmos@638)	device_current
	515	Id(Mpmos@637)	device_current
	516	Ig(Mpmos@637)	device_current
	517	Ib(Mpmos@637)	device_current
	518	Is(Mpmos@637)	device_current
	519	Id(Mpmos@636)	device_current
	520	Ig(Mpmos@636)	device_current
	521	Ib(Mpmos@636)	device_current
	522	Is(Mpmos@636)	device_current
	523	Id(Mpmos@635)	device_current
	524	Ig(Mpmos@635)	device_current
	525	Ib(Mpmos@635)	device_current
	526	Is(Mpmos@635)	device_current
	527	Id(Mpmos@634)	device_current
	528	Ig(Mpmos@634)	device_current
	529	Ib(Mpmos@634)	device_current
	530	Is(Mpmos@634)	device_current
	531	Id(Mpmos@633)	device_current
	532	Ig(Mpmos@633)	device_current
	533	Ib(Mpmos@633)	device_current
	534	Is(Mpmos@633)	device_current
	535	Id(Mpmos@632)	device_current
	536	Ig(Mpmos@632)	device_current
	537	Ib(Mpmos@632)	device_current
	538	Is(Mpmos@632)	device_current
	539	Id(Mpmos@631)	device_current
	540	Ig(Mpmos@631)	device_current
	541	Ib(Mpmos@631)	device_current
	542	Is(Mpmos@631)	device_current
	543	Id(Mpmos@630)	device_current
	544	Ig(Mpmos@630)	device_current
	545	Ib(Mpmos@630)	device_current
	546	Is(Mpmos@630)	device_current
	547	Id(Mpmos@629)	device_current
	548	Ig(Mpmos@629)	device_current
	549	Ib(Mpmos@629)	device_current
	550	Is(Mpmos@629)	device_current
	551	Id(Mpmos@628)	device_current
	552	Ig(Mpmos@628)	device_current
	553	Ib(Mpmos@628)	device_current
	554	Is(Mpmos@628)	device_current
	555	Id(Mpmos@627)	device_current
	556	Ig(Mpmos@627)	device_current
	557	Ib(Mpmos@627)	device_current
	558	Is(Mpmos@627)	device_current
	559	Id(Mpmos@626)	device_current
	560	Ig(Mpmos@626)	device_current
	561	Ib(Mpmos@626)	device_current
	562	Is(Mpmos@626)	device_current
	563	Id(Mpmos@625)	device_current
	564	Ig(Mpmos@625)	device_current
	565	Ib(Mpmos@625)	device_current
	566	Is(Mpmos@625)	device_current
	567	Id(Mpmos@624)	device_current
	568	Ig(Mpmos@624)	device_current
	569	Ib(Mpmos@624)	device_current
	570	Is(Mpmos@624)	device_current
	571	Id(Mpmos@623)	device_current
	572	Ig(Mpmos@623)	device_current
	573	Ib(Mpmos@623)	device_current
	574	Is(Mpmos@623)	device_current
	575	Id(Mpmos@622)	device_current
	576	Ig(Mpmos@622)	device_current
	577	Ib(Mpmos@622)	device_current
	578	Is(Mpmos@622)	device_current
	579	Id(Mpmos@621)	device_current
	580	Ig(Mpmos@621)	device_current
	581	Ib(Mpmos@621)	device_current
	582	Is(Mpmos@621)	device_current
	583	Id(Mpmos@620)	device_current
	584	Ig(Mpmos@620)	device_current
	585	Ib(Mpmos@620)	device_current
	586	Is(Mpmos@620)	device_current
	587	Id(Mpmos@619)	device_current
	588	Ig(Mpmos@619)	device_current
	589	Ib(Mpmos@619)	device_current
	590	Is(Mpmos@619)	device_current
	591	Id(Mpmos@618)	device_current
	592	Ig(Mpmos@618)	device_current
	593	Ib(Mpmos@618)	device_current
	594	Is(Mpmos@618)	device_current
	595	Id(Mpmos@617)	device_current
	596	Ig(Mpmos@617)	device_current
	597	Ib(Mpmos@617)	device_current
	598	Is(Mpmos@617)	device_current
	599	Id(Mpmos@616)	device_current
	600	Ig(Mpmos@616)	device_current
	601	Ib(Mpmos@616)	device_current
	602	Is(Mpmos@616)	device_current
	603	Id(Mpmos@615)	device_current
	604	Ig(Mpmos@615)	device_current
	605	Ib(Mpmos@615)	device_current
	606	Is(Mpmos@615)	device_current
	607	Id(Mpmos@614)	device_current
	608	Ig(Mpmos@614)	device_current
	609	Ib(Mpmos@614)	device_current
	610	Is(Mpmos@614)	device_current
	611	Id(Mpmos@613)	device_current
	612	Ig(Mpmos@613)	device_current
	613	Ib(Mpmos@613)	device_current
	614	Is(Mpmos@613)	device_current
	615	Id(Mpmos@612)	device_current
	616	Ig(Mpmos@612)	device_current
	617	Ib(Mpmos@612)	device_current
	618	Is(Mpmos@612)	device_current
	619	Id(Mpmos@611)	device_current
	620	Ig(Mpmos@611)	device_current
	621	Ib(Mpmos@611)	device_current
	622	Is(Mpmos@611)	device_current
	623	Id(Mpmos@610)	device_current
	624	Ig(Mpmos@610)	device_current
	625	Ib(Mpmos@610)	device_current
	626	Is(Mpmos@610)	device_current
	627	Id(Mpmos@609)	device_current
	628	Ig(Mpmos@609)	device_current
	629	Ib(Mpmos@609)	device_current
	630	Is(Mpmos@609)	device_current
	631	Id(Mpmos@608)	device_current
	632	Ig(Mpmos@608)	device_current
	633	Ib(Mpmos@608)	device_current
	634	Is(Mpmos@608)	device_current
	635	Id(Mpmos@607)	device_current
	636	Ig(Mpmos@607)	device_current
	637	Ib(Mpmos@607)	device_current
	638	Is(Mpmos@607)	device_current
	639	Id(Mpmos@606)	device_current
	640	Ig(Mpmos@606)	device_current
	641	Ib(Mpmos@606)	device_current
	642	Is(Mpmos@606)	device_current
	643	Id(Mpmos@605)	device_current
	644	Ig(Mpmos@605)	device_current
	645	Ib(Mpmos@605)	device_current
	646	Is(Mpmos@605)	device_current
	647	Id(Mpmos@604)	device_current
	648	Ig(Mpmos@604)	device_current
	649	Ib(Mpmos@604)	device_current
	650	Is(Mpmos@604)	device_current
	651	Id(Mpmos@603)	device_current
	652	Ig(Mpmos@603)	device_current
	653	Ib(Mpmos@603)	device_current
	654	Is(Mpmos@603)	device_current
	655	Id(Mpmos@602)	device_current
	656	Ig(Mpmos@602)	device_current
	657	Ib(Mpmos@602)	device_current
	658	Is(Mpmos@602)	device_current
	659	Id(Mpmos@601)	device_current
	660	Ig(Mpmos@601)	device_current
	661	Ib(Mpmos@601)	device_current
	662	Is(Mpmos@601)	device_current
	663	Id(Mpmos@600)	device_current
	664	Ig(Mpmos@600)	device_current
	665	Ib(Mpmos@600)	device_current
	666	Is(Mpmos@600)	device_current
	667	Id(Mpmos@599)	device_current
	668	Ig(Mpmos@599)	device_current
	669	Ib(Mpmos@599)	device_current
	670	Is(Mpmos@599)	device_current
	671	Id(Mpmos@598)	device_current
	672	Ig(Mpmos@598)	device_current
	673	Ib(Mpmos@598)	device_current
	674	Is(Mpmos@598)	device_current
	675	Id(Mpmos@597)	device_current
	676	Ig(Mpmos@597)	device_current
	677	Ib(Mpmos@597)	device_current
	678	Is(Mpmos@597)	device_current
	679	Id(Mpmos@596)	device_current
	680	Ig(Mpmos@596)	device_current
	681	Ib(Mpmos@596)	device_current
	682	Is(Mpmos@596)	device_current
	683	Id(Mpmos@595)	device_current
	684	Ig(Mpmos@595)	device_current
	685	Ib(Mpmos@595)	device_current
	686	Is(Mpmos@595)	device_current
	687	Id(Mpmos@594)	device_current
	688	Ig(Mpmos@594)	device_current
	689	Ib(Mpmos@594)	device_current
	690	Is(Mpmos@594)	device_current
	691	Id(Mpmos@593)	device_current
	692	Ig(Mpmos@593)	device_current
	693	Ib(Mpmos@593)	device_current
	694	Is(Mpmos@593)	device_current
	695	Id(Mpmos@592)	device_current
	696	Ig(Mpmos@592)	device_current
	697	Ib(Mpmos@592)	device_current
	698	Is(Mpmos@592)	device_current
	699	Id(Mpmos@591)	device_current
	700	Ig(Mpmos@591)	device_current
	701	Ib(Mpmos@591)	device_current
	702	Is(Mpmos@591)	device_current
	703	Id(Mpmos@590)	device_current
	704	Ig(Mpmos@590)	device_current
	705	Ib(Mpmos@590)	device_current
	706	Is(Mpmos@590)	device_current
	707	Id(Mpmos@589)	device_current
	708	Ig(Mpmos@589)	device_current
	709	Ib(Mpmos@589)	device_current
	710	Is(Mpmos@589)	device_current
	711	Id(Mpmos@588)	device_current
	712	Ig(Mpmos@588)	device_current
	713	Ib(Mpmos@588)	device_current
	714	Is(Mpmos@588)	device_current
	715	Id(Mpmos@587)	device_current
	716	Ig(Mpmos@587)	device_current
	717	Ib(Mpmos@587)	device_current
	718	Is(Mpmos@587)	device_current
	719	Id(Mpmos@586)	device_current
	720	Ig(Mpmos@586)	device_current
	721	Ib(Mpmos@586)	device_current
	722	Is(Mpmos@586)	device_current
	723	Id(Mpmos@585)	device_current
	724	Ig(Mpmos@585)	device_current
	725	Ib(Mpmos@585)	device_current
	726	Is(Mpmos@585)	device_current
	727	Id(Mpmos@584)	device_current
	728	Ig(Mpmos@584)	device_current
	729	Ib(Mpmos@584)	device_current
	730	Is(Mpmos@584)	device_current
	731	Id(Mpmos@583)	device_current
	732	Ig(Mpmos@583)	device_current
	733	Ib(Mpmos@583)	device_current
	734	Is(Mpmos@583)	device_current
	735	Id(Mpmos@582)	device_current
	736	Ig(Mpmos@582)	device_current
	737	Ib(Mpmos@582)	device_current
	738	Is(Mpmos@582)	device_current
	739	Id(Mpmos@581)	device_current
	740	Ig(Mpmos@581)	device_current
	741	Ib(Mpmos@581)	device_current
	742	Is(Mpmos@581)	device_current
	743	Id(Mpmos@580)	device_current
	744	Ig(Mpmos@580)	device_current
	745	Ib(Mpmos@580)	device_current
	746	Is(Mpmos@580)	device_current
	747	Id(Mpmos@579)	device_current
	748	Ig(Mpmos@579)	device_current
	749	Ib(Mpmos@579)	device_current
	750	Is(Mpmos@579)	device_current
	751	Id(Mpmos@578)	device_current
	752	Ig(Mpmos@578)	device_current
	753	Ib(Mpmos@578)	device_current
	754	Is(Mpmos@578)	device_current
	755	Id(Mpmos@577)	device_current
	756	Ig(Mpmos@577)	device_current
	757	Ib(Mpmos@577)	device_current
	758	Is(Mpmos@577)	device_current
	759	Id(Mpmos@576)	device_current
	760	Ig(Mpmos@576)	device_current
	761	Ib(Mpmos@576)	device_current
	762	Is(Mpmos@576)	device_current
	763	Id(Mpmos@575)	device_current
	764	Ig(Mpmos@575)	device_current
	765	Ib(Mpmos@575)	device_current
	766	Is(Mpmos@575)	device_current
	767	Id(Mpmos@574)	device_current
	768	Ig(Mpmos@574)	device_current
	769	Ib(Mpmos@574)	device_current
	770	Is(Mpmos@574)	device_current
	771	Id(Mpmos@573)	device_current
	772	Ig(Mpmos@573)	device_current
	773	Ib(Mpmos@573)	device_current
	774	Is(Mpmos@573)	device_current
	775	Id(Mpmos@572)	device_current
	776	Ig(Mpmos@572)	device_current
	777	Ib(Mpmos@572)	device_current
	778	Is(Mpmos@572)	device_current
	779	Id(Mpmos@571)	device_current
	780	Ig(Mpmos@571)	device_current
	781	Ib(Mpmos@571)	device_current
	782	Is(Mpmos@571)	device_current
	783	Id(Mpmos@570)	device_current
	784	Ig(Mpmos@570)	device_current
	785	Ib(Mpmos@570)	device_current
	786	Is(Mpmos@570)	device_current
	787	Id(Mpmos@569)	device_current
	788	Ig(Mpmos@569)	device_current
	789	Ib(Mpmos@569)	device_current
	790	Is(Mpmos@569)	device_current
	791	Id(Mpmos@568)	device_current
	792	Ig(Mpmos@568)	device_current
	793	Ib(Mpmos@568)	device_current
	794	Is(Mpmos@568)	device_current
	795	Id(Mpmos@567)	device_current
	796	Ig(Mpmos@567)	device_current
	797	Ib(Mpmos@567)	device_current
	798	Is(Mpmos@567)	device_current
	799	Id(Mpmos@566)	device_current
	800	Ig(Mpmos@566)	device_current
	801	Ib(Mpmos@566)	device_current
	802	Is(Mpmos@566)	device_current
	803	Id(Mpmos@565)	device_current
	804	Ig(Mpmos@565)	device_current
	805	Ib(Mpmos@565)	device_current
	806	Is(Mpmos@565)	device_current
	807	Id(Mpmos@564)	device_current
	808	Ig(Mpmos@564)	device_current
	809	Ib(Mpmos@564)	device_current
	810	Is(Mpmos@564)	device_current
	811	Id(Mpmos@563)	device_current
	812	Ig(Mpmos@563)	device_current
	813	Ib(Mpmos@563)	device_current
	814	Is(Mpmos@563)	device_current
	815	Id(Mpmos@562)	device_current
	816	Ig(Mpmos@562)	device_current
	817	Ib(Mpmos@562)	device_current
	818	Is(Mpmos@562)	device_current
	819	Id(Mpmos@561)	device_current
	820	Ig(Mpmos@561)	device_current
	821	Ib(Mpmos@561)	device_current
	822	Is(Mpmos@561)	device_current
	823	Id(Mpmos@560)	device_current
	824	Ig(Mpmos@560)	device_current
	825	Ib(Mpmos@560)	device_current
	826	Is(Mpmos@560)	device_current
	827	Id(Mpmos@559)	device_current
	828	Ig(Mpmos@559)	device_current
	829	Ib(Mpmos@559)	device_current
	830	Is(Mpmos@559)	device_current
	831	Id(Mpmos@558)	device_current
	832	Ig(Mpmos@558)	device_current
	833	Ib(Mpmos@558)	device_current
	834	Is(Mpmos@558)	device_current
	835	Id(Mpmos@557)	device_current
	836	Ig(Mpmos@557)	device_current
	837	Ib(Mpmos@557)	device_current
	838	Is(Mpmos@557)	device_current
	839	Id(Mpmos@556)	device_current
	840	Ig(Mpmos@556)	device_current
	841	Ib(Mpmos@556)	device_current
	842	Is(Mpmos@556)	device_current
	843	Id(Mpmos@555)	device_current
	844	Ig(Mpmos@555)	device_current
	845	Ib(Mpmos@555)	device_current
	846	Is(Mpmos@555)	device_current
	847	Id(Mpmos@554)	device_current
	848	Ig(Mpmos@554)	device_current
	849	Ib(Mpmos@554)	device_current
	850	Is(Mpmos@554)	device_current
	851	Id(Mpmos@553)	device_current
	852	Ig(Mpmos@553)	device_current
	853	Ib(Mpmos@553)	device_current
	854	Is(Mpmos@553)	device_current
	855	Id(Mpmos@552)	device_current
	856	Ig(Mpmos@552)	device_current
	857	Ib(Mpmos@552)	device_current
	858	Is(Mpmos@552)	device_current
	859	Id(Mpmos@551)	device_current
	860	Ig(Mpmos@551)	device_current
	861	Ib(Mpmos@551)	device_current
	862	Is(Mpmos@551)	device_current
	863	Id(Mpmos@550)	device_current
	864	Ig(Mpmos@550)	device_current
	865	Ib(Mpmos@550)	device_current
	866	Is(Mpmos@550)	device_current
	867	Id(Mpmos@549)	device_current
	868	Ig(Mpmos@549)	device_current
	869	Ib(Mpmos@549)	device_current
	870	Is(Mpmos@549)	device_current
	871	Id(Mpmos@548)	device_current
	872	Ig(Mpmos@548)	device_current
	873	Ib(Mpmos@548)	device_current
	874	Is(Mpmos@548)	device_current
	875	Id(Mpmos@547)	device_current
	876	Ig(Mpmos@547)	device_current
	877	Ib(Mpmos@547)	device_current
	878	Is(Mpmos@547)	device_current
	879	Id(Mpmos@546)	device_current
	880	Ig(Mpmos@546)	device_current
	881	Ib(Mpmos@546)	device_current
	882	Is(Mpmos@546)	device_current
	883	Id(Mpmos@545)	device_current
	884	Ig(Mpmos@545)	device_current
	885	Ib(Mpmos@545)	device_current
	886	Is(Mpmos@545)	device_current
	887	Id(Mpmos@544)	device_current
	888	Ig(Mpmos@544)	device_current
	889	Ib(Mpmos@544)	device_current
	890	Is(Mpmos@544)	device_current
	891	Id(Mpmos@543)	device_current
	892	Ig(Mpmos@543)	device_current
	893	Ib(Mpmos@543)	device_current
	894	Is(Mpmos@543)	device_current
	895	Id(Mpmos@542)	device_current
	896	Ig(Mpmos@542)	device_current
	897	Ib(Mpmos@542)	device_current
	898	Is(Mpmos@542)	device_current
	899	Id(Mpmos@541)	device_current
	900	Ig(Mpmos@541)	device_current
	901	Ib(Mpmos@541)	device_current
	902	Is(Mpmos@541)	device_current
	903	Id(Mpmos@540)	device_current
	904	Ig(Mpmos@540)	device_current
	905	Ib(Mpmos@540)	device_current
	906	Is(Mpmos@540)	device_current
	907	Id(Mnmos@717)	device_current
	908	Ig(Mnmos@717)	device_current
	909	Ib(Mnmos@717)	device_current
	910	Is(Mnmos@717)	device_current
	911	Id(Mnmos@716)	device_current
	912	Ig(Mnmos@716)	device_current
	913	Ib(Mnmos@716)	device_current
	914	Is(Mnmos@716)	device_current
	915	Id(Mnmos@715)	device_current
	916	Ig(Mnmos@715)	device_current
	917	Ib(Mnmos@715)	device_current
	918	Is(Mnmos@715)	device_current
	919	Id(Mnmos@714)	device_current
	920	Ig(Mnmos@714)	device_current
	921	Ib(Mnmos@714)	device_current
	922	Is(Mnmos@714)	device_current
	923	Id(Mnmos@713)	device_current
	924	Ig(Mnmos@713)	device_current
	925	Ib(Mnmos@713)	device_current
	926	Is(Mnmos@713)	device_current